TITLE = "Vertical Motion Mode Shape"
VARIABLES = "X" "Y" "Z" "ID" "XMD" "YMD" "ZMD"
ZONE T="Cylinder", I=5, J=1, F=FEPOINT
  -1.000000000000000E-003  0.000000000000000E+000 -1.000000000000000E-003          1  0.000000000000000E+000  0.000000000000000E+000  0.100000000000000E+001
   1.000000000000000E-003  0.000000000000000E+000 -1.000000000000000E-003          2  0.000000000000000E+000  0.000000000000000E+000  0.100000000000000E+001
   1.000000000000000E-003  0.000000000000000E+000  1.000000000000000E-003          3  0.000000000000000E+000  0.000000000000000E+000  0.100000000000000E+001
  -1.000000000000000E-003  0.000000000000000E+000  1.000000000000000E-003          4  0.000000000000000E+000  0.000000000000000E+000  0.100000000000000E+001
   0.000000000000000E+000  0.000000000000000E+000  0.000000000000000E+000          5  0.000000000000000E+000  0.000000000000000E+000  0.100000000000000E+001
