TITLE = "Horizontal Motion Mode Shape"
VARIABLES = "X" "Y" "Z" "ID" "XMD" "YMD" "ZMD"
ZONE T="Cylinder", I=5, J=1, F=FEPOINT
  -1.000000000000000E-003  0.000000000000000E+000 -1.000000000000000E-003          1  1.000000000000000E+000  0.000000000000000E+000  0.000000000000000E+000
   1.000000000000000E-003  0.000000000000000E+000 -1.000000000000000E-003          2  1.000000000000000E+000  0.000000000000000E+000  0.000000000000000E+000
   1.000000000000000E-003  0.000000000000000E+000  1.000000000000000E-003          3  1.000000000000000E+000  0.000000000000000E+000  0.000000000000000E+000
  -1.000000000000000E-003  0.000000000000000E+000  1.000000000000000E-003          4  1.000000000000000E+000  0.000000000000000E+000  0.000000000000000E+000
   0.000000000000000E+000  0.000000000000000E+000  0.000000000000000E+000          5  1.000000000000000E+000  0.000000000000000E+000  0.000000000000000E+000
