# vtk DataFile Version 3.0
vtk output
ASCII
DATASET UNSTRUCTURED_GRID
POINTS 1000 float
0.000000e+00 -0.000000e+00 0.000000e+00
1.531658e-03 -0.000000e+00 0.000000e+00
0.000000e+00 -2.500000e-01 0.000000e+00
1.531658e-03 -2.500000e-01 0.000000e+00
3.063317e-03 -0.000000e+00 0.000000e+00
3.063317e-03 -2.500000e-01 0.000000e+00
4.594975e-03 -0.000000e+00 0.000000e+00
4.594975e-03 -2.500000e-01 0.000000e+00
6.126633e-03 -0.000000e+00 0.000000e+00
6.126633e-03 -2.500000e-01 0.000000e+00
7.658292e-03 -0.000000e+00 0.000000e+00
7.658292e-03 -2.500000e-01 0.000000e+00
9.189949e-03 -0.000000e+00 0.000000e+00
9.189949e-03 -2.500000e-01 0.000000e+00
1.072161e-02 -0.000000e+00 0.000000e+00
1.072161e-02 -2.500000e-01 0.000000e+00
1.225327e-02 -0.000000e+00 0.000000e+00
1.225327e-02 -2.500000e-01 0.000000e+00
1.378492e-02 -0.000000e+00 0.000000e+00
1.378492e-02 -2.500000e-01 0.000000e+00
1.531658e-02 -0.000000e+00 0.000000e+00
1.531658e-02 -2.500000e-01 0.000000e+00
1.684824e-02 -0.000000e+00 0.000000e+00
1.684824e-02 -2.500000e-01 0.000000e+00
1.837990e-02 -0.000000e+00 0.000000e+00
1.837990e-02 -2.500000e-01 0.000000e+00
1.991156e-02 -0.000000e+00 0.000000e+00
1.991156e-02 -2.500000e-01 0.000000e+00
2.144322e-02 -0.000000e+00 0.000000e+00
2.144322e-02 -2.500000e-01 0.000000e+00
2.297487e-02 -0.000000e+00 0.000000e+00
2.297487e-02 -2.500000e-01 0.000000e+00
2.450653e-02 -0.000000e+00 0.000000e+00
2.450653e-02 -2.500000e-01 0.000000e+00
2.603819e-02 -0.000000e+00 0.000000e+00
2.603819e-02 -2.500000e-01 0.000000e+00
2.756985e-02 -0.000000e+00 0.000000e+00
2.756985e-02 -2.500000e-01 0.000000e+00
2.910151e-02 -0.000000e+00 0.000000e+00
2.910151e-02 -2.500000e-01 0.000000e+00
3.063317e-02 -0.000000e+00 0.000000e+00
3.063317e-02 -2.500000e-01 0.000000e+00
3.216482e-02 -0.000000e+00 0.000000e+00
3.216482e-02 -2.500000e-01 0.000000e+00
3.369648e-02 -0.000000e+00 0.000000e+00
3.369648e-02 -2.500000e-01 0.000000e+00
3.522814e-02 -0.000000e+00 0.000000e+00
3.522814e-02 -2.500000e-01 0.000000e+00
3.675980e-02 -0.000000e+00 0.000000e+00
3.675980e-02 -2.500000e-01 0.000000e+00
3.829146e-02 -0.000000e+00 0.000000e+00
3.829146e-02 -2.500000e-01 0.000000e+00
3.982311e-02 -0.000000e+00 0.000000e+00
3.982311e-02 -2.500000e-01 0.000000e+00
4.135478e-02 -0.000000e+00 0.000000e+00
4.135478e-02 -2.500000e-01 0.000000e+00
4.288643e-02 -0.000000e+00 0.000000e+00
4.288643e-02 -2.500000e-01 0.000000e+00
4.441809e-02 -0.000000e+00 0.000000e+00
4.441809e-02 -2.500000e-01 0.000000e+00
4.594975e-02 -0.000000e+00 0.000000e+00
4.594975e-02 -2.500000e-01 0.000000e+00
4.748141e-02 -0.000000e+00 0.000000e+00
4.748141e-02 -2.500000e-01 0.000000e+00
4.901307e-02 -0.000000e+00 0.000000e+00
4.901307e-02 -2.500000e-01 0.000000e+00
5.054472e-02 -0.000000e+00 0.000000e+00
5.054472e-02 -2.500000e-01 0.000000e+00
5.207638e-02 -0.000000e+00 0.000000e+00
5.207638e-02 -2.500000e-01 0.000000e+00
5.360804e-02 -0.000000e+00 0.000000e+00
5.360804e-02 -2.500000e-01 0.000000e+00
5.513970e-02 -0.000000e+00 0.000000e+00
5.513970e-02 -2.500000e-01 0.000000e+00
5.667135e-02 -0.000000e+00 0.000000e+00
5.667135e-02 -2.500000e-01 0.000000e+00
5.820302e-02 -0.000000e+00 0.000000e+00
5.820302e-02 -2.500000e-01 0.000000e+00
5.973467e-02 -0.000000e+00 0.000000e+00
5.973467e-02 -2.500000e-01 0.000000e+00
6.126633e-02 -0.000000e+00 0.000000e+00
6.126633e-02 -2.500000e-01 0.000000e+00
6.279799e-02 -0.000000e+00 0.000000e+00
6.279799e-02 -2.500000e-01 0.000000e+00
6.432965e-02 -0.000000e+00 0.000000e+00
6.432965e-02 -2.500000e-01 0.000000e+00
6.586131e-02 -0.000000e+00 0.000000e+00
6.586131e-02 -2.500000e-01 0.000000e+00
6.739297e-02 -0.000000e+00 0.000000e+00
6.739297e-02 -2.500000e-01 0.000000e+00
6.892462e-02 -0.000000e+00 0.000000e+00
6.892462e-02 -2.500000e-01 0.000000e+00
7.045628e-02 -0.000000e+00 0.000000e+00
7.045628e-02 -2.500000e-01 0.000000e+00
7.198794e-02 -0.000000e+00 0.000000e+00
7.198794e-02 -2.500000e-01 0.000000e+00
7.351959e-02 -0.000000e+00 0.000000e+00
7.351959e-02 -2.500000e-01 0.000000e+00
7.505126e-02 -0.000000e+00 0.000000e+00
7.505126e-02 -2.500000e-01 0.000000e+00
7.658292e-02 -0.000000e+00 0.000000e+00
7.658292e-02 -2.500000e-01 0.000000e+00
7.811457e-02 -0.000000e+00 0.000000e+00
7.811457e-02 -2.500000e-01 0.000000e+00
7.964623e-02 -0.000000e+00 0.000000e+00
7.964623e-02 -2.500000e-01 0.000000e+00
8.117789e-02 -0.000000e+00 0.000000e+00
8.117789e-02 -2.500000e-01 0.000000e+00
8.270955e-02 -0.000000e+00 0.000000e+00
8.270955e-02 -2.500000e-01 0.000000e+00
8.424120e-02 -0.000000e+00 0.000000e+00
8.424120e-02 -2.500000e-01 0.000000e+00
8.577286e-02 -0.000000e+00 0.000000e+00
8.577286e-02 -2.500000e-01 0.000000e+00
8.730453e-02 -0.000000e+00 0.000000e+00
8.730453e-02 -2.500000e-01 0.000000e+00
8.883618e-02 -0.000000e+00 0.000000e+00
8.883618e-02 -2.500000e-01 0.000000e+00
9.036784e-02 -0.000000e+00 0.000000e+00
9.036784e-02 -2.500000e-01 0.000000e+00
9.189950e-02 -0.000000e+00 0.000000e+00
9.189950e-02 -2.500000e-01 0.000000e+00
9.343115e-02 -0.000000e+00 0.000000e+00
9.343115e-02 -2.500000e-01 0.000000e+00
9.496281e-02 -0.000000e+00 0.000000e+00
9.496281e-02 -2.500000e-01 0.000000e+00
9.649447e-02 -0.000000e+00 0.000000e+00
9.649447e-02 -2.500000e-01 0.000000e+00
9.802613e-02 -0.000000e+00 0.000000e+00
9.802613e-02 -2.500000e-01 0.000000e+00
9.955779e-02 -0.000000e+00 0.000000e+00
9.955779e-02 -2.500000e-01 0.000000e+00
1.010894e-01 -0.000000e+00 0.000000e+00
1.010894e-01 -2.500000e-01 0.000000e+00
1.026211e-01 -0.000000e+00 0.000000e+00
1.026211e-01 -2.500000e-01 0.000000e+00
1.041528e-01 -0.000000e+00 0.000000e+00
1.041528e-01 -2.500000e-01 0.000000e+00
1.056844e-01 -0.000000e+00 0.000000e+00
1.056844e-01 -2.500000e-01 0.000000e+00
1.072161e-01 -0.000000e+00 0.000000e+00
1.072161e-01 -2.500000e-01 0.000000e+00
1.087477e-01 -0.000000e+00 0.000000e+00
1.087477e-01 -2.500000e-01 0.000000e+00
1.102794e-01 -0.000000e+00 0.000000e+00
1.102794e-01 -2.500000e-01 0.000000e+00
1.118111e-01 -0.000000e+00 0.000000e+00
1.118111e-01 -2.500000e-01 0.000000e+00
1.133427e-01 -0.000000e+00 0.000000e+00
1.133427e-01 -2.500000e-01 0.000000e+00
1.148744e-01 -0.000000e+00 0.000000e+00
1.148744e-01 -2.500000e-01 0.000000e+00
1.164060e-01 -0.000000e+00 0.000000e+00
1.164060e-01 -2.500000e-01 0.000000e+00
1.179377e-01 -0.000000e+00 0.000000e+00
1.179377e-01 -2.500000e-01 0.000000e+00
1.194693e-01 -0.000000e+00 0.000000e+00
1.194693e-01 -2.500000e-01 0.000000e+00
1.210010e-01 -0.000000e+00 0.000000e+00
1.210010e-01 -2.500000e-01 0.000000e+00
1.225327e-01 -0.000000e+00 0.000000e+00
1.225327e-01 -2.500000e-01 0.000000e+00
1.240643e-01 -0.000000e+00 0.000000e+00
1.240643e-01 -2.500000e-01 0.000000e+00
1.255960e-01 -0.000000e+00 0.000000e+00
1.255960e-01 -2.500000e-01 0.000000e+00
1.271276e-01 -0.000000e+00 0.000000e+00
1.271276e-01 -2.500000e-01 0.000000e+00
1.286593e-01 -0.000000e+00 0.000000e+00
1.286593e-01 -2.500000e-01 0.000000e+00
1.301910e-01 -0.000000e+00 0.000000e+00
1.301910e-01 -2.500000e-01 0.000000e+00
1.317226e-01 -0.000000e+00 0.000000e+00
1.317226e-01 -2.500000e-01 0.000000e+00
1.332543e-01 -0.000000e+00 0.000000e+00
1.332543e-01 -2.500000e-01 0.000000e+00
1.347859e-01 -0.000000e+00 0.000000e+00
1.347859e-01 -2.500000e-01 0.000000e+00
1.363176e-01 -0.000000e+00 0.000000e+00
1.363176e-01 -2.500000e-01 0.000000e+00
1.378492e-01 -0.000000e+00 0.000000e+00
1.378492e-01 -2.500000e-01 0.000000e+00
1.393809e-01 -0.000000e+00 0.000000e+00
1.393809e-01 -2.500000e-01 0.000000e+00
1.409126e-01 -0.000000e+00 0.000000e+00
1.409126e-01 -2.500000e-01 0.000000e+00
1.424442e-01 -0.000000e+00 0.000000e+00
1.424442e-01 -2.500000e-01 0.000000e+00
1.439759e-01 -0.000000e+00 0.000000e+00
1.439759e-01 -2.500000e-01 0.000000e+00
1.455075e-01 -0.000000e+00 0.000000e+00
1.455075e-01 -2.500000e-01 0.000000e+00
1.470392e-01 -0.000000e+00 0.000000e+00
1.470392e-01 -2.500000e-01 0.000000e+00
1.485709e-01 -0.000000e+00 0.000000e+00
1.485709e-01 -2.500000e-01 0.000000e+00
1.501025e-01 -0.000000e+00 0.000000e+00
1.501025e-01 -2.500000e-01 0.000000e+00
1.516342e-01 -0.000000e+00 0.000000e+00
1.516342e-01 -2.500000e-01 0.000000e+00
1.531658e-01 -0.000000e+00 0.000000e+00
1.531658e-01 -2.500000e-01 0.000000e+00
1.546975e-01 -0.000000e+00 0.000000e+00
1.546975e-01 -2.500000e-01 0.000000e+00
1.562291e-01 -0.000000e+00 0.000000e+00
1.562291e-01 -2.500000e-01 0.000000e+00
1.577608e-01 -0.000000e+00 0.000000e+00
1.577608e-01 -2.500000e-01 0.000000e+00
1.592925e-01 -0.000000e+00 0.000000e+00
1.592925e-01 -2.500000e-01 0.000000e+00
1.608241e-01 -0.000000e+00 0.000000e+00
1.608241e-01 -2.500000e-01 0.000000e+00
1.623558e-01 -0.000000e+00 0.000000e+00
1.623558e-01 -2.500000e-01 0.000000e+00
1.638874e-01 -0.000000e+00 0.000000e+00
1.638874e-01 -2.500000e-01 0.000000e+00
1.654191e-01 -0.000000e+00 0.000000e+00
1.654191e-01 -2.500000e-01 0.000000e+00
1.669507e-01 -0.000000e+00 0.000000e+00
1.669507e-01 -2.500000e-01 0.000000e+00
1.684824e-01 -0.000000e+00 0.000000e+00
1.684824e-01 -2.500000e-01 0.000000e+00
1.700141e-01 -0.000000e+00 0.000000e+00
1.700141e-01 -2.500000e-01 0.000000e+00
1.715457e-01 -0.000000e+00 0.000000e+00
1.715457e-01 -2.500000e-01 0.000000e+00
1.730774e-01 -0.000000e+00 0.000000e+00
1.730774e-01 -2.500000e-01 0.000000e+00
1.746091e-01 -0.000000e+00 0.000000e+00
1.746091e-01 -2.500000e-01 0.000000e+00
1.761407e-01 -0.000000e+00 0.000000e+00
1.761407e-01 -2.500000e-01 0.000000e+00
1.776724e-01 -0.000000e+00 0.000000e+00
1.776724e-01 -2.500000e-01 0.000000e+00
1.792040e-01 -0.000000e+00 0.000000e+00
1.792040e-01 -2.500000e-01 0.000000e+00
1.807357e-01 -0.000000e+00 0.000000e+00
1.807357e-01 -2.500000e-01 0.000000e+00
1.822673e-01 -0.000000e+00 0.000000e+00
1.822673e-01 -2.500000e-01 0.000000e+00
1.837990e-01 -0.000000e+00 0.000000e+00
1.837990e-01 -2.500000e-01 0.000000e+00
1.853307e-01 -0.000000e+00 0.000000e+00
1.853307e-01 -2.500000e-01 0.000000e+00
1.868623e-01 -0.000000e+00 0.000000e+00
1.868623e-01 -2.500000e-01 0.000000e+00
1.883940e-01 -0.000000e+00 0.000000e+00
[...]
POINT_DATA 1000
SCALARS u float 1
LOOKUP_TABLE default
5.319e+02
5.318e+02
4.806e+02
4.806e+02
5.318e+02
4.806e+02
5.318e+02
4.806e+02
5.318e+02
4.806e+02
5.318e+02
4.806e+02
5.318e+02
4.806e+02
5.317e+02
4.807e+02
5.317e+02
4.807e+02
5.316e+02
4.807e+02
5.316e+02
4.807e+02
5.315e+02
4.807e+02
5.314e+02
4.807e+02
5.314e+02
4.807e+02
5.313e+02
4.807e+02
5.312e+02
4.807e+02
5.311e+02
4.808e+02
5.311e+02
4.808e+02
5.310e+02
4.808e+02
5.309e+02
4.808e+02
5.308e+02
4.808e+02
5.307e+02
4.808e+02
5.306e+02
4.808e+02
5.305e+02
4.809e+02
5.305e+02
4.809e+02
5.304e+02
4.809e+02
5.303e+02
4.809e+02
5.302e+02
4.809e+02
5.301e+02
4.809e+02
5.300e+02
4.809e+02
5.299e+02
4.809e+02
5.298e+02
4.810e+02
5.297e+02
4.810e+02
5.296e+02
4.810e+02
5.295e+02
4.810e+02
5.294e+02
4.810e+02
5.293e+02
4.810e+02
5.292e+02
4.810e+02
5.291e+02
4.810e+02
5.290e+02
4.810e+02
5.289e+02
4.811e+02
5.289e+02
4.811e+02
5.288e+02
4.811e+02
5.287e+02
4.811e+02
5.286e+02
4.811e+02
5.285e+02
4.811e+02
5.284e+02
4.811e+02
5.283e+02
4.811e+02
5.282e+02
4.811e+02
5.281e+02
4.811e+02
5.280e+02
4.811e+02
5.279e+02
4.812e+02
5.278e+02
4.812e+02
5.277e+02
4.812e+02
5.276e+02
4.812e+02
5.275e+02
4.812e+02
5.274e+02
4.812e+02
5.273e+02
4.812e+02
5.272e+02
4.812e+02
5.272e+02
4.812e+02
5.271e+02
4.812e+02
5.270e+02
4.812e+02
5.269e+02
4.812e+02
5.268e+02
4.812e+02
5.267e+02
4.812e+02
5.266e+02
4.812e+02
5.265e+02
4.812e+02
5.264e+02
4.812e+02
5.263e+02
4.812e+02
5.263e+02
4.812e+02
5.262e+02
4.812e+02
5.261e+02
4.812e+02
5.260e+02
4.812e+02
5.259e+02
4.812e+02
5.258e+02
4.813e+02
5.257e+02
4.813e+02
5.257e+02
4.813e+02
5.256e+02
4.813e+02
5.255e+02
4.813e+02
5.254e+02
4.813e+02
5.253e+02
4.813e+02
5.253e+02
4.813e+02
5.252e+02
4.813e+02
5.251e+02
4.813e+02
5.250e+02
4.813e+02
5.249e+02
4.813e+02
5.249e+02
4.813e+02
5.248e+02
4.813e+02
5.247e+02
4.813e+02
5.246e+02
4.813e+02
5.246e+02
4.813e+02
5.245e+02
4.813e+02
5.244e+02
4.813e+02
5.243e+02
4.813e+02
5.243e+02
4.813e+02
5.242e+02
4.813e+02
5.241e+02
4.813e+02
5.240e+02
4.813e+02
5.240e+02
4.813e+02
5.239e+02
4.813e+02
5.238e+02
4.813e+02
5.238e+02
4.813e+02
5.237e+02
4.812e+02
5.236e+02
4.812e+02
5.236e+02
4.812e+02
5.235e+02
4.812e+02
5.234e+02
4.812e+02
5.234e+02
4.812e+02
5.233e+02
4.812e+02
5.232e+02
4.812e+02
5.232e+02
4.812e+02
5.231e+02
4.812e+02
5.230e+02
4.812e+02
5.230e+02
4.812e+02
5.229e+02
4.812e+02
5.229e+02
4.812e+02
5.228e+02
4.812e+02
5.228e+02
4.812e+02
5.227e+02
4.812e+02
5.226e+02
4.812e+02
5.226e+02
4.812e+02
5.225e+02
4.812e+02
5.225e+02
4.812e+02
5.224e+02
4.812e+02
5.224e+02
4.812e+02
5.223e+02
4.812e+02
5.223e+02
4.812e+02
5.222e+02
4.812e+02
5.222e+02
4.812e+02
5.221e+02
4.812e+02
5.221e+02
4.812e+02
5.220e+02
4.812e+02
5.220e+02
4.812e+02
5.219e+02
4.812e+02
5.219e+02
4.812e+02
5.218e+02
4.812e+02
5.218e+02
4.812e+02
5.217e+02
4.812e+02
5.217e+02
4.812e+02
5.216e+02
4.812e+02
5.216e+02
4.812e+02
5.216e+02
4.811e+02
5.215e+02
4.811e+02
5.215e+02
4.811e+02
5.214e+02
4.811e+02
5.214e+02
4.811e+02
5.214e+02
4.811e+02
5.213e+02
4.811e+02
5.213e+02
4.811e+02
5.213e+02
4.811e+02
5.212e+02
4.811e+02
5.212e+02
4.811e+02
5.211e+02
4.811e+02
5.211e+02
4.811e+02
5.211e+02
4.811e+02
5.211e+02
4.811e+02
5.210e+02
4.811e+02
5.210e+02
4.811e+02
5.210e+02
4.811e+02
5.209e+02
4.811e+02
5.209e+02
4.811e+02
5.209e+02
4.811e+02
5.209e+02
4.811e+02
5.208e+02
4.811e+02
5.208e+02
4.811e+02
5.208e+02
4.811e+02
5.208e+02
4.811e+02
5.207e+02
4.811e+02
5.207e+02
4.811e+02
5.207e+02
4.811e+02
5.207e+02
4.811e+02
5.206e+02
4.811e+02
5.206e+02
4.811e+02
5.206e+02
4.811e+02
5.206e+02
4.811e+02
5.206e+02
4.811e+02
5.206e+02
4.811e+02
5.205e+02
4.811e+02
5.205e+02
4.811e+02
5.205e+02
4.811e+02
5.205e+02
4.811e+02
5.205e+02
4.811e+02
5.205e+02
4.811e+02
5.205e+02
4.811e+02
5.205e+02
4.811e+02
5.205e+02
4.811e+02
5.204e+02
4.811e+02
5.204e+02
4.810e+02
5.204e+02
4.810e+02
5.204e+02
4.810e+02
5.204e+02
4.810e+02
5.204e+02
4.810e+02
5.204e+02
4.810e+02
5.204e+02
4.810e+02
5.204e+02
4.810e+02
5.204e+02
4.810e+02
5.204e+02
4.810e+02
5.204e+02
4.810e+02
5.204e+02
4.810e+02
5.204e+02
4.810e+02
4.375e+02
4.375e+02
4.375e+02
4.375e+02
4.375e+02
4.375e+02
4.375e+02
4.375e+02
4.375e+02
4.375e+02
4.375e+02
4.375e+02
4.375e+02
4.375e+02
4.375e+02
4.374e+02
4.374e+02
4.374e+02
4.374e+02
4.374e+02
4.374e+02
4.374e+02
4.374e+02
4.374e+02
4.374e+02
4.374e+02
4.374e+02
4.374e+02
4.374e+02
4.374e+02
4.374e+02
4.374e+02
4.374e+02
4.374e+02
4.374e+02
4.374e+02
4.374e+02
4.374e+02
4.374e+02
4.374e+02
4.374e+02
4.374e+02
4.374e+02
4.374e+02
4.374e+02
4.374e+02
4.374e+02
4.374e+02
4.374e+02
4.374e+02
4.374e+02
4.374e+02
4.374e+02
4.374e+02
4.374e+02
4.374e+02
4.374e+02
4.374e+02
4.374e+02
4.374e+02
4.374e+02
4.374e+02
4.374e+02
4.374e+02
4.374e+02
4.374e+02
4.374e+02
4.374e+02
4.374e+02
4.374e+02
4.374e+02
4.374e+02
4.374e+02
4.374e+02
4.374e+02
4.374e+02
4.374e+02
4.374e+02
4.374e+02
4.374e+02
4.374e+02
4.374e+02
4.374e+02
4.374e+02
4.374e+02
4.374e+02
4.374e+02
4.374e+02
4.374e+02
4.374e+02
4.374e+02
4.374e+02
4.374e+02
4.374e+02
4.374e+02
4.374e+02
4.374e+02
4.374e+02
4.374e+02
4.374e+02
4.374e+02
4.374e+02
4.374e+02
4.374e+02
4.374e+02
4.374e+02
4.374e+02
4.374e+02
4.374e+02
4.374e+02
4.374e+02
4.374e+02
4.374e+02
4.374e+02
4.374e+02
4.374e+02
4.374e+02
4.374e+02
4.374e+02
4.374e+02
4.374e+02
4.374e+02
4.374e+02
4.374e+02
4.374e+02
4.374e+02
4.374e+02
4.374e+02
4.374e+02
4.374e+02
4.374e+02
4.374e+02
4.374e+02
4.374e+02
4.374e+02
4.374e+02
4.374e+02
4.374e+02
4.374e+02
4.374e+02
4.374e+02
4.374e+02
4.374e+02
4.374e+02
4.374e+02
4.374e+02
4.374e+02
4.374e+02
4.374e+02
4.374e+02
4.374e+02
4.374e+02
4.374e+02
4.374e+02
4.374e+02
4.374e+02
4.374e+02
4.374e+02
4.374e+02
4.374e+02
4.374e+02
4.374e+02
4.374e+02
4.374e+02
4.374e+02
4.374e+02
4.374e+02
4.374e+02
4.374e+02
4.374e+02
4.374e+02
4.374e+02
4.374e+02
4.374e+02
4.374e+02
4.374e+02
4.374e+02
4.374e+02
4.374e+02
4.374e+02
4.374e+02
4.374e+02
4.374e+02
4.374e+02
4.374e+02
4.374e+02
4.374e+02
4.374e+02
4.374e+02
4.374e+02
4.374e+02
4.374e+02
4.374e+02
4.374e+02
4.374e+02
4.374e+02
4.374e+02
4.374e+02
4.374e+02
4.374e+02
3.937e+02
3.937e+02
3.937e+02
3.937e+02
3.937e+02
3.937e+02
3.937e+02
3.937e+02
3.937e+02
3.937e+02
3.937e+02
3.937e+02
3.937e+02
3.937e+02
3.937e+02
3.937e+02
3.937e+02
3.937e+02
3.937e+02
3.937e+02
3.937e+02
3.937e+02
3.937e+02
3.937e+02
3.937e+02
3.937e+02
3.937e+02
3.937e+02
3.937e+02
3.937e+02
3.937e+02
3.937e+02
3.937e+02
3.937e+02
3.937e+02
3.937e+02
3.937e+02
3.937e+02
3.937e+02
3.937e+02
3.937e+02
3.937e+02
3.937e+02
3.937e+02
3.937e+02
3.937e+02
3.937e+02
3.937e+02
3.937e+02
3.937e+02
3.937e+02
3.937e+02
3.937e+02
3.937e+02
3.937e+02
3.937e+02
3.937e+02
3.937e+02
3.937e+02
3.937e+02
3.937e+02
3.937e+02
3.937e+02
3.937e+02
3.937e+02
3.937e+02
3.937e+02
3.937e+02
3.937e+02
3.937e+02
3.937e+02
3.937e+02
3.937e+02
3.937e+02
3.937e+02
3.937e+02
3.937e+02
3.937e+02
3.937e+02
3.937e+02
3.937e+02
3.937e+02
3.937e+02
3.937e+02
3.937e+02
3.937e+02
3.937e+02
3.937e+02
3.937e+02
3.937e+02
3.937e+02
3.937e+02
3.937e+02
3.937e+02
3.937e+02
3.937e+02
3.937e+02
3.937e+02
3.937e+02
3.937e+02
3.937e+02
3.937e+02
3.937e+02
3.937e+02
3.937e+02
3.937e+02
3.937e+02
3.937e+02
3.937e+02
3.937e+02
3.937e+02
3.937e+02
3.937e+02
3.937e+02
3.937e+02
3.937e+02
3.937e+02
3.937e+02
3.937e+02
3.937e+02
3.937e+02
3.937e+02
3.937e+02
3.937e+02
3.937e+02
3.937e+02
3.937e+02
3.937e+02
3.937e+02
3.937e+02
3.937e+02
3.937e+02
3.937e+02
3.937e+02
3.937e+02
3.937e+02
3.937e+02
3.937e+02
3.937e+02
3.937e+02
3.937e+02
3.937e+02
3.937e+02
3.937e+02
3.937e+02
3.937e+02
3.937e+02
3.937e+02
3.937e+02
3.937e+02
3.937e+02
3.937e+02
3.937e+02
3.937e+02
3.937e+02
3.937e+02
3.937e+02
3.937e+02
3.937e+02
3.937e+02
3.937e+02
3.937e+02
3.937e+02
3.937e+02
3.937e+02
3.937e+02
3.937e+02
3.937e+02
3.937e+02
3.937e+02
3.937e+02
3.937e+02
3.937e+02
3.937e+02
3.937e+02
3.937e+02
3.937e+02
3.937e+02
3.937e+02
3.937e+02
3.937e+02
3.937e+02
3.937e+02
3.937e+02
3.937e+02
3.937e+02
3.937e+02
3.937e+02
3.937e+02
3.937e+02
3.937e+02
3.937e+02
3.937e+02
3.937e+02
3.937e+02
3.937e+02
3.937e+02
3.937e+02
3.937e+02
3.937e+02
3.500e+02
3.500e+02
3.500e+02
3.500e+02
3.500e+02
3.500e+02
3.500e+02
3.500e+02
3.500e+02
3.500e+02
3.500e+02
3.500e+02
3.500e+02
3.500e+02
3.500e+02
3.500e+02
3.500e+02
3.500e+02
3.500e+02
3.500e+02
3.500e+02
3.500e+02
3.500e+02
3.500e+02
3.500e+02
3.500e+02
3.500e+02
3.500e+02
3.500e+02
3.500e+02
3.500e+02
3.500e+02
3.500e+02
3.500e+02
3.500e+02
3.500e+02
3.500e+02
3.500e+02
3.500e+02
3.500e+02
3.500e+02
3.500e+02
3.500e+02
3.500e+02
3.500e+02
3.500e+02
3.500e+02
3.500e+02
3.500e+02
3.500e+02
3.500e+02
3.500e+02
3.500e+02
3.500e+02
3.500e+02
3.500e+02
3.500e+02
3.500e+02
3.500e+02
3.500e+02
3.500e+02
3.500e+02
3.500e+02
3.500e+02
3.500e+02
3.500e+02
3.500e+02
3.500e+02
3.500e+02
3.500e+02
3.500e+02
3.500e+02
3.500e+02
3.500e+02
3.500e+02
3.500e+02
3.500e+02
3.500e+02
3.500e+02
3.500e+02
3.500e+02
3.500e+02
3.500e+02
3.500e+02
3.500e+02
3.500e+02
3.500e+02
3.500e+02
3.500e+02
3.500e+02
3.500e+02
3.500e+02
3.500e+02
3.500e+02
3.500e+02
3.500e+02
3.500e+02
3.500e+02
3.500e+02
3.500e+02
3.500e+02
3.500e+02
3.500e+02
3.500e+02
3.500e+02
3.500e+02
3.500e+02
3.500e+02
3.500e+02
3.500e+02
3.500e+02
3.500e+02
3.500e+02
3.500e+02
3.500e+02
3.500e+02
3.500e+02
3.500e+02
3.500e+02
3.500e+02
3.500e+02
3.500e+02
3.500e+02
3.500e+02
3.500e+02
3.500e+02
3.500e+02
3.500e+02
3.500e+02
3.500e+02
3.500e+02
3.500e+02
3.500e+02
3.500e+02
3.500e+02
3.500e+02
3.500e+02
3.500e+02
3.500e+02
3.500e+02
3.500e+02
3.500e+02
3.500e+02
3.500e+02
3.500e+02
3.500e+02
3.500e+02
3.500e+02
3.500e+02
3.500e+02
3.500e+02
3.500e+02
3.500e+02
3.500e+02
3.500e+02
3.500e+02
3.500e+02
3.500e+02
3.500e+02
3.500e+02
3.500e+02
3.500e+02
3.500e+02
3.500e+02
3.500e+02
3.500e+02
3.500e+02
3.500e+02
3.500e+02
3.500e+02
3.500e+02
3.500e+02
3.500e+02
3.500e+02
3.500e+02
3.500e+02
3.500e+02
3.500e+02
3.500e+02
3.500e+02
3.500e+02
3.500e+02
3.500e+02
3.500e+02
3.500e+02
3.500e+02
3.500e+02
3.500e+02
3.500e+02
3.500e+02
3.500e+02
3.500e+02
3.500e+02
3.500e+02
3.500e+02
3.500e+02
3.500e+02
3.500e+02
3.500e+02
3.500e+02
SCALARS ux float 1
LOOKUP_TABLE default
-3.273e+00
-3.967e+00
7.146e-01
7.385e-01
-5.940e+00
9.429e-01
-9.018e+00
1.444e+00
-1.272e+01
2.113e+00
-1.691e+01
2.913e+00
-2.175e+01
3.891e+00
-2.677e+01
4.917e+00
-3.184e+01
5.959e+00
-3.721e+01
7.085e+00
-4.093e+01
7.772e+00
-4.313e+01
8.056e+00
-4.518e+01
8.304e+00
-4.672e+01
8.418e+00
-4.841e+01
8.577e+00
-4.999e+01
8.710e+00
-5.111e+01
8.726e+00
-5.240e+01
8.792e+00
-5.361e+01
8.839e+00
-5.441e+01
8.783e+00
-5.538e+01
8.776e+00
-5.629e+01
8.759e+00
-5.713e+01
8.727e+00
-5.815e+01
8.747e+00
-5.883e+01
8.682e+00
-5.945e+01
8.606e+00
-6.002e+01
8.522e+00
-6.028e+01
8.358e+00
-6.073e+01
8.251e+00
-6.114e+01
8.138e+00
-6.126e+01
7.952e+00
-6.156e+01
7.822e+00
-6.185e+01
7.690e+00
-6.185e+01
7.488e+00
-6.204e+01
7.342e+00
-6.222e+01
7.196e+00
-6.237e+01
7.048e+00
-6.270e+01
6.955e+00
-6.279e+01
6.800e+00
-6.286e+01
6.645e+00
-6.291e+01
6.488e+00
-6.271e+01
6.273e+00
-6.271e+01
6.113e+00
-6.269e+01
5.954e+00
-6.244e+01
5.737e+00
-6.238e+01
5.575e+00
-6.231e+01
5.416e+00
-6.201e+01
5.200e+00
-6.190e+01
5.038e+00
-6.178e+01
4.880e+00
-6.165e+01
4.723e+00
-6.170e+01
4.619e+00
-6.155e+01
4.463e+00
-6.138e+01
4.309e+00
-6.120e+01
4.157e+00
-6.081e+01
3.953e+00
-6.061e+01
3.803e+00
-6.040e+01
3.655e+00
-5.999e+01
3.456e+00
-5.976e+01
3.311e+00
-5.953e+01
3.168e+00
-5.909e+01
2.976e+00
-5.883e+01
2.835e+00
-5.857e+01
2.698e+00
-5.831e+01
2.564e+00
-5.822e+01
2.480e+00
-5.794e+01
2.349e+00
-5.765e+01
2.221e+00
-5.736e+01
2.095e+00
-5.688e+01
1.922e+00
-5.658e+01
1.800e+00
-5.627e+01
1.681e+00
-5.578e+01
1.515e+00
-5.546e+01
1.400e+00
-5.514e+01
1.288e+00
-5.463e+01
1.129e+00
-5.430e+01
1.020e+00
-5.397e+01
9.148e-01
-5.363e+01
8.123e-01
-5.346e+01
7.580e-01
-5.312e+01
6.596e-01
-5.277e+01
5.641e-01
-5.242e+01
4.704e-01
-5.189e+01
3.329e-01
-5.153e+01
2.439e-01
-5.117e+01
1.576e-01
-5.064e+01
2.741e-02
-5.027e+01
-5.507e-02
-4.990e+01
-1.342e-01
-4.936e+01
-2.573e-01
-4.898e+01
-3.335e-01
-4.861e+01
-4.059e-01
-4.823e+01
-4.758e-01
-4.802e+01
-4.996e-01
-4.764e+01
-5.655e-01
-4.726e+01
-6.288e-01
-4.687e+01
-6.904e-01
-4.632e+01
-7.941e-01
-4.593e+01
-8.511e-01
-4.554e+01
-9.060e-01
-4.498e+01
-1.003e+00
-4.458e+01
-1.054e+00
-4.419e+01
-1.102e+00
-4.363e+01
-1.193e+00
-4.322e+01
-1.239e+00
-4.282e+01
-1.281e+00
-4.242e+01
-1.321e+00
-4.218e+01
-1.317e+00
-4.178e+01
-1.353e+00
-4.137e+01
-1.388e+00
-4.096e+01
-1.421e+00
-4.039e+01
-1.494e+00
-3.999e+01
-1.523e+00
-3.958e+01
-1.550e+00
-3.900e+01
-1.618e+00
-3.859e+01
-1.642e+00
-3.818e+01
-1.664e+00
-3.760e+01
-1.726e+00
-3.718e+01
-1.745e+00
-3.677e+01
-1.762e+00
-3.635e+01
-1.776e+00
-3.608e+01
-1.749e+00
-3.566e+01
-1.760e+00
-3.524e+01
-1.770e+00
-3.482e+01
-1.779e+00
-3.424e+01
-1.827e+00
-3.382e+01
-1.833e+00
-3.339e+01
-1.837e+00
-3.281e+01
-1.881e+00
-3.238e+01
-1.882e+00
-3.196e+01
-1.882e+00
-3.137e+01
-1.921e+00
-3.094e+01
-1.919e+00
-3.051e+01
-1.915e+00
-3.008e+01
-1.909e+00
-2.980e+01
-1.862e+00
-2.936e+01
-1.854e+00
-2.893e+01
-1.844e+00
-2.849e+01
-1.834e+00
-2.790e+01
-1.863e+00
-2.747e+01
-1.850e+00
-2.703e+01
-1.836e+00
-2.644e+01
-1.861e+00
-2.600e+01
-1.845e+00
-2.556e+01
-1.828e+00
-2.496e+01
-1.850e+00
-2.452e+01
-1.832e+00
-2.407e+01
-1.812e+00
-2.363e+01
-1.791e+00
-2.333e+01
-1.730e+00
-2.288e+01
-1.707e+00
-2.243e+01
-1.683e+00
-2.198e+01
-1.660e+00
-2.138e+01
-1.674e+00
-2.093e+01
-1.649e+00
-2.048e+01
-1.622e+00
-1.988e+01
-1.635e+00
-1.942e+01
-1.607e+00
-1.897e+01
-1.579e+00
-1.836e+01
-1.590e+00
-1.790e+01
-1.561e+00
-1.744e+01
-1.531e+00
-1.698e+01
-1.500e+00
-1.666e+01
-1.431e+00
-1.619e+01
-1.400e+00
-1.573e+01
-1.369e+00
-1.526e+01
-1.338e+00
-1.464e+01
-1.344e+00
-1.417e+01
-1.312e+00
-1.370e+01
-1.280e+00
-1.308e+01
-1.286e+00
-1.260e+01
-1.253e+00
-1.212e+01
-1.221e+00
-1.150e+01
-1.226e+00
-1.102e+01
-1.194e+00
-1.053e+01
-1.161e+00
-1.005e+01
-1.128e+00
-9.700e+00
-1.058e+00
-9.211e+00
-1.026e+00
-8.719e+00
-9.932e-01
-8.222e+00
-9.619e-01
-7.583e+00
-9.682e-01
-7.085e+00
-9.366e-01
-6.583e+00
-9.057e-01
-5.937e+00
-9.131e-01
-5.429e+00
-8.832e-01
-4.920e+00
-8.535e-01
-4.267e+00
-8.623e-01
-3.750e+00
-8.344e-01
-3.234e+00
-8.062e-01
-3.122e+00
-6.696e-01
-3.458e+00
-4.130e-01
-3.593e+00
-2.103e-01
-3.642e+00
-3.015e-02
-3.575e+00
1.191e-01
-3.210e+00
1.887e-01
-2.640e+00
2.035e-01
-1.832e+00
1.548e-01
-6.235e-01
-9.367e-04
8.337e-02
-1.063e-01
-1.776e-01
-1.710e-01
-1.996e-01
-3.074e-01
-4.602e-01
-6.479e-01
-8.836e-01
-1.132e+00
-1.386e+00
-1.662e+00
-1.822e+00
-1.876e+00
-1.920e+00
-1.930e+00
-1.952e+00
-1.969e+00
-1.955e+00
-1.955e+00
-1.951e+00
-1.920e+00
-1.903e+00
-1.884e+00
-1.862e+00
-1.855e+00
-1.826e+00
-1.795e+00
-1.762e+00
-1.709e+00
-1.672e+00
-1.634e+00
-1.577e+00
-1.536e+00
-1.495e+00
-1.436e+00
-1.393e+00
-1.350e+00
-1.308e+00
-1.280e+00
-1.237e+00
-1.195e+00
-1.152e+00
-1.095e+00
-1.053e+00
-1.011e+00
-9.549e-01
-9.137e-01
-8.737e-01
-8.191e-01
-7.793e-01
-7.408e-01
-7.032e-01
-6.801e-01
-6.434e-01
-6.077e-01
-5.727e-01
-5.243e-01
-4.905e-01
-4.577e-01
-4.117e-01
-3.800e-01
-3.494e-01
-3.058e-01
-2.760e-01
-2.477e-01
-2.201e-01
-2.063e-01
-1.800e-01
-1.547e-01
-1.300e-01
-9.302e-02
-6.975e-02
-4.734e-02
-1.262e-02
8.665e-03
2.890e-02
6.144e-02
8.085e-02
9.908e-02
1.166e-01
1.212e-01
1.375e-01
1.531e-01
1.682e-01
1.949e-01
2.087e-01
2.218e-01
2.467e-01
2.589e-01
2.702e-01
2.933e-01
3.040e-01
3.136e-01
3.228e-01
3.197e-01
3.279e-01
3.355e-01
3.427e-01
3.612e-01
3.675e-01
3.732e-01
3.903e-01
3.953e-01
3.996e-01
4.154e-01
4.193e-01
4.224e-01
4.251e-01
4.162e-01
4.182e-01
4.198e-01
4.212e-01
4.336e-01
4.342e-01
4.344e-01
4.458e-01
4.455e-01
4.448e-01
4.552e-01
4.542e-01
4.526e-01
4.508e-01
4.377e-01
4.354e-01
4.328e-01
4.301e-01
4.381e-01
4.348e-01
4.313e-01
4.387e-01
4.349e-01
4.307e-01
4.374e-01
4.332e-01
4.285e-01
4.236e-01
4.079e-01
4.028e-01
3.974e-01
3.921e-01
3.974e-01
3.916e-01
3.858e-01
3.906e-01
3.846e-01
3.784e-01
3.829e-01
3.768e-01
3.702e-01
3.637e-01
3.467e-01
3.400e-01
3.332e-01
3.266e-01
3.303e-01
3.234e-01
3.165e-01
3.200e-01
3.132e-01
3.062e-01
3.097e-01
3.029e-01
2.958e-01
2.888e-01
2.717e-01
2.648e-01
2.578e-01
2.511e-01
2.547e-01
2.479e-01
2.413e-01
2.450e-01
2.385e-01
2.321e-01
2.360e-01
2.299e-01
2.237e-01
2.177e-01
2.018e-01
1.961e-01
1.904e-01
1.852e-01
1.900e-01
1.849e-01
1.800e-01
1.854e-01
1.809e-01
1.766e-01
1.826e-01
1.789e-01
1.752e-01
1.427e-01
7.827e-02
2.821e-02
-1.581e-02
-5.159e-02
-6.614e-02
-6.612e-02
-4.917e-02
-3.692e-03
2.638e-02
4.236e-02
3.867e-02
4.176e-02
6.468e-02
9.885e-02
1.418e-01
1.968e-01
2.551e-01
3.148e-01
3.802e-01
4.167e-01
4.267e-01
4.347e-01
4.340e-01
4.367e-01
4.381e-01
4.320e-01
4.295e-01
4.263e-01
4.164e-01
4.103e-01
4.038e-01
3.967e-01
3.934e-01
3.847e-01
3.758e-01
3.665e-01
3.524e-01
3.423e-01
3.321e-01
3.174e-01
3.068e-01
2.963e-01
2.814e-01
2.705e-01
2.599e-01
2.495e-01
2.429e-01
2.325e-01
2.223e-01
2.123e-01
1.986e-01
1.888e-01
1.792e-01
1.660e-01
1.567e-01
1.477e-01
1.352e-01
1.264e-01
1.180e-01
1.099e-01
1.054e-01
9.763e-02
9.012e-02
8.284e-02
7.226e-02
6.536e-02
5.874e-02
4.885e-02
4.256e-02
3.660e-02
2.737e-02
2.166e-02
1.629e-02
1.116e-02
9.456e-03
4.666e-03
1.159e-04
-4.255e-03
-1.171e-02
-1.572e-02
-1.952e-02
-2.639e-02
-2.991e-02
-3.316e-02
-3.950e-02
-4.257e-02
-4.535e-02
-4.796e-02
-4.735e-02
-4.970e-02
-5.186e-02
-5.391e-02
-5.890e-02
-6.067e-02
-6.228e-02
-6.686e-02
-6.828e-02
-6.950e-02
-7.370e-02
-7.481e-02
-7.571e-02
-7.649e-02
-7.424e-02
-7.484e-02
-7.532e-02
-7.574e-02
-7.901e-02
-7.922e-02
-7.935e-02
-8.234e-02
-8.235e-02
-8.222e-02
-8.497e-02
-8.480e-02
-8.447e-02
-8.406e-02
-8.078e-02
-8.027e-02
-7.968e-02
-7.908e-02
-8.125e-02
-8.051e-02
-7.973e-02
-8.174e-02
-8.090e-02
-7.997e-02
-8.185e-02
-8.092e-02
-7.988e-02
-7.880e-02
-7.496e-02
-7.384e-02
-7.267e-02
-7.152e-02
-7.308e-02
-7.184e-02
-7.059e-02
-7.206e-02
-7.080e-02
-6.948e-02
-7.090e-02
-6.963e-02
-6.826e-02
-6.688e-02
-6.285e-02
-6.147e-02
-6.006e-02
-5.870e-02
-6.000e-02
-5.858e-02
-5.718e-02
-5.846e-02
-5.708e-02
-5.566e-02
-5.694e-02
-5.560e-02
-5.419e-02
-5.279e-02
-4.881e-02
-4.744e-02
-4.606e-02
-4.475e-02
-4.605e-02
-4.471e-02
-4.341e-02
-4.474e-02
-4.348e-02
-4.222e-02
-4.360e-02
-4.243e-02
-4.122e-02
-4.004e-02
-3.635e-02
-3.523e-02
-3.412e-02
-3.310e-02
-3.465e-02
-3.364e-02
-3.268e-02
-3.433e-02
-3.345e-02
-3.260e-02
-3.436e-02
-3.363e-02
-3.289e-02
-3.220e-02
-2.906e-02
-2.848e-02
-2.793e-02
-2.750e-02
-2.961e-02
-2.923e-02
-2.893e-02
-3.122e-02
-3.105e-02
-3.094e-02
-3.342e-02
-3.348e-02
-3.356e-02
-2.645e-02
-1.137e-02
1.142e-04
1.008e-02
1.799e-02
2.060e-02
1.957e-02
1.432e-02
1.936e-03
-6.088e-03
0.000e+00
0.000e+00
0.000e+00
0.000e+00
0.000e+00
0.000e+00
0.000e+00
0.000e+00
0.000e+00
0.000e+00
0.000e+00
0.000e+00
0.000e+00
0.000e+00
0.000e+00
0.000e+00
0.000e+00
0.000e+00
0.000e+00
0.000e+00
0.000e+00
0.000e+00
0.000e+00
0.000e+00
0.000e+00
0.000e+00
0.000e+00
0.000e+00
0.000e+00
0.000e+00
0.000e+00
0.000e+00
0.000e+00
0.000e+00
0.000e+00
0.000e+00
0.000e+00
0.000e+00
0.000e+00
0.000e+00
0.000e+00
0.000e+00
0.000e+00
0.000e+00
0.000e+00
0.000e+00
0.000e+00
0.000e+00
0.000e+00
0.000e+00
0.000e+00
0.000e+00
0.000e+00
0.000e+00
0.000e+00
0.000e+00
0.000e+00
0.000e+00
0.000e+00
0.000e+00
0.000e+00
0.000e+00
0.000e+00
0.000e+00
0.000e+00
0.000e+00
0.000e+00
0.000e+00
0.000e+00
0.000e+00
0.000e+00
0.000e+00
0.000e+00
0.000e+00
0.000e+00
0.000e+00
0.000e+00
0.000e+00
0.000e+00
0.000e+00
0.000e+00
0.000e+00
0.000e+00
0.000e+00
0.000e+00
0.000e+00
0.000e+00
0.000e+00
0.000e+00
0.000e+00
0.000e+00
0.000e+00
0.000e+00
0.000e+00
0.000e+00
0.000e+00
0.000e+00
0.000e+00
0.000e+00
0.000e+00
0.000e+00
0.000e+00
0.000e+00
0.000e+00
0.000e+00
0.000e+00
0.000e+00
0.000e+00
0.000e+00
0.000e+00
0.000e+00
0.000e+00
0.000e+00
0.000e+00
0.000e+00
0.000e+00
0.000e+00
0.000e+00
0.000e+00
0.000e+00
0.000e+00
0.000e+00
0.000e+00
0.000e+00
0.000e+00
0.000e+00
0.000e+00
0.000e+00
0.000e+00
0.000e+00
0.000e+00
0.000e+00
0.000e+00
0.000e+00
0.000e+00
0.000e+00
0.000e+00
0.000e+00
0.000e+00